1
Properties=species:S:1:pos:R:3:energies:R:1:forces:R:3:charge:R:1 -4.89886133=T energy=-130.21012719409632 free_energy=-130.21012719409632 dipole="0.0 0.0 0.0" pbc="F F F"
Cl       0.00000000       0.00000000       0.00000000    -130.21012719      -0.00000000      -0.00000000      -0.00000000      -1.00000000
