1
Properties=species:S:1:pos:R:3:energies:R:1:forces:R:3:charge:R:1 0.08838773=T energy=5.319433216758845 free_energy=5.319433216758845 dipole="0.0 0.0 0.0" pbc="F F F"
Na       0.00000000       0.00000000       0.00000000       5.31943322      -0.00000000      -0.00000000      -0.00000000       1.00000000
