14
Properties=species:S:1:pos:R:3:energies:R:1:forces:R:3:charge:R:1 energy=-666.1135480939075 free_energy=-666.1135480939075 dipole="-0.1542443663743827 0.04888189188034851 -0.4308409518168731" pbc="F F F"
C        1.91507245      -0.52342451      -0.29086040     -59.57744763      -0.00249894      -0.00090233       0.00028625      -0.11388697
C        1.00764981       0.60495579       0.15580420     -57.77261664      -0.00393770      -0.00166913      -0.00314108       0.07394728
Cl       1.33957879       0.97919640       1.89625135    -126.31388730       0.00392576      -0.00278992       0.00439611      -0.21023883
C       -0.43942040       0.26513940       0.04007914     -58.37672871      -0.00206951       0.00240165       0.00164443       0.06849866
C       -1.46048751       1.16974644      -0.02425968     -56.88637628      -0.00432029       0.00182705      -0.00252063      -0.03422129
S       -2.97655686       0.37099611      -0.09915404     -90.65434953       0.00188525       0.00580082      -0.00344324      -0.00821832
C       -2.11660876      -1.13643339      -0.03757026     -56.92896694       0.00772735      -0.00081989       0.00335312       0.07310523
N       -0.84382770      -1.03243636       0.03208299     -80.45030239       0.00382793      -0.00103482       0.00222884      -0.21258947
H        2.95547147      -0.26467567      -0.11273049     -13.18444035       0.00063953      -0.00201740      -0.00400098       0.05971241
H        1.76881677      -0.70463563      -1.35351054     -13.20571279      -0.00637380       0.00662522      -0.00115509       0.05643718
H        1.66863469      -1.43127201       0.25224561     -13.01196576       0.00533549      -0.00329496       0.00495777       0.07749037
H        1.22494600       1.53420631      -0.37674713     -13.07174196      -0.00407944      -0.00104812       0.00425420       0.05558718
H       -1.40270875       2.23911868      -0.02333157     -13.41652031       0.00133381      -0.00010956      -0.00525763       0.05358268
H       -2.64056019      -2.07048169      -0.05829924     -13.26249152      -0.00139545      -0.00296861      -0.00160207       0.06079387
