15
Properties=species:S:1:pos:R:3:energies:R:1:forces:R:3:charge:R:1 energy=-678.8972390788833 free_energy=-678.8972390788833 dipole="0.25036058607144934 -0.5812130934359331 0.4266763790687213" pbc="F F F"
C       -1.62382412       0.13362895       1.10935888     -59.33890556       0.00218657      -0.00025817       0.00114572      -0.09818138
C       -1.00572226      -0.29801981      -0.22326871     -59.41919642       0.00050866       0.00215031       0.00001981      -0.00289010
C       -1.45404175       0.58161207      -1.28394587     -57.45669136      -0.00545243      -0.00188242      -0.00426935       0.11731676
N       -1.79524745       1.27828303      -2.12275862     -79.81743847       0.00371404       0.00295284      -0.00184692      -0.22894699
C        0.49840547      -0.23559505      -0.19192871     -58.21161863       0.00018071      -0.00480477       0.00480845       0.07737632
C        1.33838538      -1.00013874      -0.94626270     -56.94343238      -0.00037617       0.00196266      -0.00365444      -0.03973381
S        2.97592884      -0.58098828      -0.64003022     -90.71614289      -0.00060802      -0.00231763       0.00112801      -0.01308493
C        2.39768227       0.60302604       0.48908601     -56.91364667      -0.00162273      -0.00020877       0.00299798       0.07418130
N        1.12503303       0.66384269       0.60893503     -80.53912961      -0.00262746       0.00615538      -0.00489893      -0.21979559
H       -1.32160134      -0.55438629       1.89501265     -13.29010152       0.00356154      -0.00055821      -0.00239678       0.05001458
H       -1.27731146       1.13055759       1.36786923     -13.13465962      -0.00178149      -0.00166870       0.00494653       0.06746018
H       -2.70922425       0.13831764       1.03761027     -13.32923501       0.00446439      -0.00226898       0.00068562       0.04730555
H       -1.32090035      -1.31682740      -0.48146041     -13.02813797       0.00091643       0.00378420      -0.00184521       0.06147283
H        1.09290341      -1.76655599      -1.65313196     -13.47606789      -0.00242066      -0.00425765       0.00291396       0.04824365
H        3.07953453       1.22324357       1.03491529     -13.28283506      -0.00064340       0.00121990       0.00026554       0.05926163
