3
Properties=species:S:1:pos:R:3:energies:R:1:forces:R:3:charge:R:1 energy=-141.90472152587242 free_energy=-141.90472152587242 dipole="1.817698786412507 -0.5606624081244419 1.2773080385179471e-15" pbc="F F F"
N       -1.42402269       0.06004546       0.00000000     -80.09954364       0.00172110      -0.00053087       0.00000000      -0.27091275
C       -0.32218899      -0.27981102      -0.00000000     -58.41723395      -0.00143839       0.00044366      -0.00000000      -0.18232914
Na       1.74621168      -0.91780149       0.00000000      -3.38794394      -0.00028271       0.00008720       0.00000000       0.45324188
