2
Properties=species:S:1:pos:R:3:energies:R:1:forces:R:3:charge:R:1 -0.98182735=T energy=-26.740252800282217 free_energy=-26.740252800282217 dipole="-2.350018893099564e-16 0.0 0.0" pbc="F F F"
H        0.38837569      -0.00000000      -0.00000000     -13.37012640      -0.00137371      -0.00000000      -0.00000000      -0.00000000
H       -0.38837569       0.00000000      -0.00000000     -13.37012640       0.00137371      -0.00000000      -0.00000000       0.00000000
