16
Properties=species:S:1:pos:R:3:energies:R:1:forces:R:3:charge:R:1 energy=-487.93921541248994 free_energy=-487.93921541248994 dipole="-0.008685115261237112 -0.06471909436492863 -0.02279824215849815" pbc="F F F"
C        0.80546766       1.16590462       0.60252265     -58.24452682      -0.00650100      -0.00564011       0.00406858      -0.04110460
C       -0.45630268       1.43671830       0.31426099     -58.24453559       0.00548515      -0.00286534      -0.00701460      -0.04110241
C       -1.40090356       0.43787435      -0.28089407     -59.34620423      -0.00339993      -0.00350888      -0.00231592      -0.05299350
C       -0.86679840      -0.98542740      -0.14171109     -59.22058183       0.00119102       0.00191785      -0.00044844      -0.05380427
C        0.59623465      -1.03130156      -0.56869176     -59.22058480      -0.00072863       0.00142907       0.00164739      -0.05380403
C        1.43637782      -0.17347866       0.37403078     -59.34619791       0.00210432      -0.00455868      -0.00061895      -0.05299521
H        1.44345094       1.92186206       1.04034551     -13.61148020      -0.00310545       0.00067420       0.00256773       0.02070904
H       -0.86033625       2.42455405       0.49069888     -13.61147806       0.00338650       0.00124681      -0.00188877       0.02070782
H       -2.37818765       0.52385009       0.20137347     -13.38124373       0.00173960       0.00208032       0.00459424       0.03266993
H       -1.54520774       0.67814425      -1.34024208     -13.30772065      -0.00169615      -0.00167958       0.00075465       0.03702875
H       -0.94528464      -1.30303123       0.90043293     -13.38602008      -0.00369748       0.00418383      -0.00401206       0.03241194
H       -1.46361651      -1.66904079      -0.74924460     -13.47182041       0.00411317      -0.00045183       0.00514372       0.02508296
H        0.68387552      -0.64545948      -1.58679833     -13.38602080       0.00423647      -0.00019647       0.00541325       0.03241193
H        0.96335558      -2.05980444      -0.56425938     -13.47181843      -0.00366739       0.00378519      -0.00397372       0.02508299
H        2.44296733      -0.04100084      -0.03128558     -13.38125101      -0.00077802       0.00480141      -0.00217948       0.03266997
H        1.54490812      -0.68036297       1.33946163     -13.30773085       0.00131781      -0.00121781      -0.00173762       0.03702869
