18
Properties=species:S:1:pos:R:3:energies:R:1:forces:R:3:charge:R:1 energy=-516.4212628924602 free_energy=-516.4212628924602 dipole="2.7257116150945643e-08 -2.03354676618038e-08 7.325268390444017e-08" pbc="F F F"
C        0.31166485      -1.35060415      -0.33041441     -59.20089342      -0.00184610       0.00320099       0.00470926      -0.05414707
C        1.46368604      -0.34728736      -0.19289107     -59.18797644      -0.00883204       0.00209692       0.00116431      -0.05490509
C        0.94695010       1.05197280       0.16455091     -59.20089328      -0.00416395      -0.00177374      -0.00391705      -0.05414706
C       -0.43040739       1.28242105      -0.44786786     -59.20089328       0.00324049      -0.00240035       0.00442343      -0.05414707
C       -1.46368642       0.34728715       0.19288880     -59.18797647       0.00883285      -0.00209457      -0.00116453      -0.05490509
C       -0.82820725      -0.98378972       0.61373360     -59.20089345       0.00276988       0.00097489      -0.00521556      -0.05414706
H       -0.06545819      -1.34996185      -1.35498764     -13.38293787      -0.00364591      -0.00341497       0.00649595       0.03145020
H        0.67133243      -2.35832213      -0.11463353     -13.47691990      -0.00146999      -0.00167727      -0.00178730       0.02449532
H        2.15668063      -0.68187256       0.58152855     -13.45057661      -0.00113554      -0.00211088       0.00243728       0.02565408
H        2.01935683      -0.30897072      -1.13186726     -13.45057623      -0.00064456       0.00253285      -0.00220268       0.02565410
H        1.64968565       1.80761646      -0.19123436     -13.47692017      -0.00008871       0.00204599       0.00199195       0.02449530
H        0.87280713       1.15839855       1.24859378     -13.38293756      -0.00323008       0.00504688      -0.00559055       0.03145022
H       -0.73609669       2.32113392      -0.30985549     -13.47692010       0.00083141       0.00130906      -0.00239980       0.02449531
H       -0.37354933       1.09787950      -1.52243016     -13.38293783       0.00531493       0.00437371       0.00444716       0.03145019
H       -2.27118829       0.16436763      -0.51872605     -13.45057640       0.00002969      -0.00288691      -0.00183011       0.02565410
H       -1.90485052       0.82647531       1.06905511     -13.45057648       0.00175000       0.00246382       0.00159625       0.02565408
H       -0.43379919      -0.90631650       1.62882603     -13.38293730       0.00156091      -0.00600626      -0.00535164       0.03145023
H       -1.58492022      -1.77042760       0.61573106     -13.47692011       0.00072672      -0.00168019       0.00219363       0.02449531
