6
Properties=species:S:1:pos:R:3:energies:R:1:forces:R:3:charge:R:1 energy=-170.64969302049468 free_energy=-170.64969302049468 dipole="6.352459896692319e-07 -2.2363802581052013e-08 -1.7016534850703022e-07" pbc="F F F"
C       -0.64204769       0.01670180       0.14373473     -58.36471947      -0.00329692       0.00008581       0.00073769      -0.07694420
C        0.64204770      -0.01670175      -0.14373462     -58.36470313       0.00330206      -0.00008593      -0.00073977      -0.07694258
H       -1.25719674      -0.86778877       0.11440096     -13.48006690       0.00002243      -0.00123610      -0.00023270       0.03847177
H       -1.14143417       0.93018508       0.42257850     -13.48006696       0.00018100       0.00123087       0.00018760       0.03847176
H        1.14143423      -0.93018534      -0.42257794     -13.48006824      -0.00018340      -0.00122574      -0.00018826       0.03847162
H        1.25719680       0.86778902      -0.11440163     -13.48006831      -0.00002517       0.00123109       0.00023544       0.03847162
