10
Properties=species:S:1:pos:R:3:energies:R:1:forces:R:3:charge:R:1 energy=-367.7730727925245 free_energy=-367.7730727925245 dipole="-0.47195531511888295 0.09248854980782124 -0.17315410852919505" pbc="F F F"
C        1.20657662      -0.82777495       0.31831945     -58.47964361       0.00214333      -0.00223784       0.00040382      -0.14059012
C        0.32203654       0.14628146       0.16218724     -58.49724984       0.00393423      -0.00180126       0.00122687       0.14069556
C       -1.04176042      -0.03788055      -0.43311008     -59.66906271       0.00497330      -0.00385704       0.00121882      -0.12397869
O        0.63216889       1.42061528       0.55675181    -112.75923603       0.00091234       0.00148214       0.00068433      -0.40250260
H        0.98714223      -1.83365887       0.01722493     -13.53893713      -0.00331561       0.00309513      -0.00070198       0.03603094
H        2.16962561      -0.63316500       0.75226814     -13.41822331      -0.00284269       0.00047261      -0.00106069       0.04898819
H       -1.15450526       0.58613668      -1.32112447     -13.30036894      -0.00245691       0.00281069       0.00098064       0.04618024
H       -1.19876894      -1.07367957      -0.71501615     -13.28688212      -0.00107327      -0.00799468      -0.00212023       0.05195722
H       -1.81057964       0.24804972       0.28650045     -13.30037005      -0.00151866       0.00329467      -0.00131842       0.04618013
H       -0.11193583       2.00507575       0.37599876     -11.52309906      -0.00075605       0.00473559       0.00068684       0.29703914
