10
Properties=species:S:1:pos:R:3:energies:R:1:forces:R:3:charge:R:1 energy=-314.3650383178551 free_energy=-314.3650383178551 dipole="-3.4503056818208415e-08 4.65909601576594e-07 1.9148302700669745e-07" pbc="F F F"
C        1.81482291      -0.23476899      -0.07027975     -58.19997237       0.00328088      -0.00240320      -0.00151935      -0.08597067
C        0.62689074       0.27904095       0.22905399     -58.53741182       0.00005860       0.00054141       0.00038330      -0.02541472
C       -0.62689213      -0.27904153      -0.22905348     -58.53743732       0.00007749      -0.00060321      -0.00042090      -0.02541657
C       -1.81482164       0.23476883       0.07027964     -58.19996945      -0.00344887       0.00245883       0.00154962      -0.08597001
H        2.73308035       0.20106697       0.28429675     -13.52778140      -0.00230155       0.00002574      -0.00010096       0.03601212
H        1.90923256      -1.11545133      -0.68484064     -13.48185172      -0.00013317       0.00049140       0.00033828       0.03915282
H        0.55567633       1.16425841       0.84801751     -13.43549437      -0.00072937       0.00196648       0.00134536       0.03622097
H       -0.55567680      -1.16425920      -0.84801768     -13.43549007       0.00072483      -0.00195161      -0.00133496       0.03622124
H       -2.73308079      -0.20106569      -0.28429799     -13.52778061       0.00233273      -0.00001115       0.00011524       0.03601195
H       -1.90923184       1.11545151       0.68484163     -13.48184918       0.00013844      -0.00051470      -0.00035565       0.03915287
