15
Properties=species:S:1:pos:R:3:energies:R:1:forces:R:3:charge:R:1 energy=-623.1073711671952 free_energy=-623.1073711671952 dipole="0.04269647256958856 -0.347932686945247 0.07407568162362667" pbc="F F F"
C        2.07121029       0.65463012       0.14935954     -59.69261399       0.00412526      -0.00480084       0.00256496      -0.14277906
C        0.85241951       0.23283137       0.91203435     -58.44539391       0.00036529      -0.00009908      -0.00266836       0.25039708
O        0.43657647       0.78837837       1.89507337    -111.73434679      -0.00393497       0.00413784       0.00070187      -0.35385180
C        0.11633214      -0.94795241       0.29151118     -59.29174828       0.00013194      -0.00077899       0.00020101      -0.11841699
C       -0.84157466      -0.32120807      -0.71384721     -58.44536446      -0.00044373       0.00055967       0.00257507       0.25039792
C       -2.16096626       0.07669091      -0.12568327     -59.69263216      -0.00260139      -0.00623485      -0.00032080      -0.14277978
O       -0.51768393      -0.12746240      -1.85642423    -111.73433932       0.00275986       0.00439766      -0.00234259      -0.35384893
H        2.43426948       1.61325711       0.51034133     -13.08744103      -0.00047327      -0.00149671      -0.00539683       0.07158853
H        2.85308451      -0.09269438       0.27277632     -12.99847237       0.00299507      -0.00513552      -0.00107172       0.07529259
H        1.82748558       0.71490240      -0.91018044     -12.95781808       0.00418616       0.00583967       0.00401488       0.08366258
H        0.81502561      -1.60250439      -0.22578810     -12.99174354       0.00163531       0.00198259      -0.00357966       0.07489556
H       -0.43649319      -1.48194051       1.06186815     -12.99174080      -0.00228946       0.00279484       0.00250443       0.07489587
H       -2.71780274       0.69713641      -0.82286982     -13.08743446       0.00047844       0.00091911       0.00561147       0.07158922
H       -1.99031403       0.61199168       0.80705457     -12.95780968      -0.00530940       0.00250506      -0.00593246       0.08366378
H       -2.74156888      -0.81605623       0.10008408     -12.99847231      -0.00162510      -0.00459044       0.00313873       0.07529343
