15
Properties=species:S:1:pos:R:3:energies:R:1:forces:R:3:charge:R:1 energy=-622.9341653589942 free_energy=-622.9341653589942 dipole="-0.0737690405142101 0.7442358117369889 0.2426364822838372" pbc="F F F"
C        2.46911911       0.17208118       0.26174196     -59.50984461      -0.00014644      -0.00258367       0.00037590      -0.13500296
C        1.09135609      -0.39984617      -0.00269851     -58.87168566      -0.00074252       0.00057741       0.00303535       0.23347316
O        0.93921197      -1.54435406      -0.38295651    -112.02864779      -0.00353137      -0.00092581       0.00002453      -0.39789479
C        0.01086512       0.54478541       0.23288434     -58.67013886      -0.00048422       0.00209203       0.00090016      -0.13214014
C       -1.29449998       0.30673279      -0.00875991     -58.18998289       0.00122510      -0.00050921      -0.00454681       0.17466538
C       -1.85570563      -0.96995104      -0.52710601     -59.72554791       0.00204483      -0.00043216      -0.00058619      -0.12618862
O       -2.23993210       1.24359161       0.20489405    -112.51112154      -0.00141716      -0.00298937      -0.00144115      -0.36445482
H        2.53912878       0.50837982       1.29407083     -13.22981004      -0.00287723      -0.00146901       0.00210060       0.05477073
H        3.22466374      -0.58571913       0.07557103     -13.20405461       0.00727681      -0.00300441      -0.00196086       0.06118183
H        2.64470244       1.02616383      -0.38923603     -13.22830323      -0.00009599       0.00263570      -0.00036020       0.05485987
H        0.30223262       1.51822132       0.60882158     -13.49399430       0.00161272       0.00109058       0.00042423       0.02945081
H       -1.15726901      -1.43811676      -1.21455811     -12.88172977      -0.00320692       0.00260211      -0.00571391       0.09422536
H       -2.81182569      -0.77650123      -1.00634220     -13.08765121       0.00122585      -0.00104066       0.00576766       0.06907356
H       -2.01068109      -1.66242550       0.29927234     -12.94305958       0.00356404       0.00457597       0.00289827       0.08021673
H       -1.85136614       2.05695788       0.55440106     -11.35859336      -0.00444752      -0.00061951      -0.00091758       0.30376391
