10
Properties=species:S:1:pos:R:3:energies:R:1:forces:R:3:charge:R:1 energy=-368.28270678673493 free_energy=-368.28270678673493 dipole="-0.02562675510466307 0.5419174313769566 0.46070486995135235" pbc="F F F"
C       -1.26748800       0.16225720      -0.01539650     -59.61923277      -0.00737801       0.00096050      -0.00007599      -0.14122817
C        0.02370509      -0.50128011      -0.42615767     -58.58043576       0.00025368      -0.00536718      -0.00456255       0.24676295
C        1.25602297       0.08018871       0.22150949     -59.61923278       0.00730962       0.00048265       0.00130274      -0.14122817
O        0.06704014      -1.41766529      -1.20521278    -111.68007573      -0.00018879       0.00399322       0.00339496      -0.35426407
H       -1.23671826       1.21917005      -0.27036356     -13.12418985       0.00218402       0.00192459      -0.00054145       0.06423103
H       -1.39878098       0.07954217       1.06114430     -13.12419060       0.00184191      -0.00048010       0.00226779       0.06423097
H       -2.10724033      -0.30751042      -0.51967664     -13.14348442      -0.00866015      -0.00132832      -0.00219110       0.06651673
H        1.34133294       1.13532746      -0.02833888     -13.12418956      -0.00191666       0.00205777      -0.00092643       0.06423105
H        2.14285993      -0.44573130      -0.12067815     -13.14348439       0.00881287      -0.00189641      -0.00055064       0.06651674
H        1.17926669      -0.00429838       1.30317031     -13.12419093      -0.00225850      -0.00034671       0.00188267       0.06423094
